Program Version,EnergyPlus, Version 8.9.0-30f4ebd739, YMD=2018.05.22 10:01
1,5,Environment Title[],Latitude[deg],Longitude[deg],Time Zone[],Elevation[m]
2,8,Day of Simulation[],Month[],Day of Month[],DST Indicator[1=yes 0=no],Hour[],StartMinute[],EndMinute[],DayType
3,5,Cumulative Day of Simulation[],Month[],Day of Month[],DST Indicator[1=yes 0=no],DayType  ! When Daily Report Variables Requested
4,2,Cumulative Days of Simulation[],Month[]  ! When Monthly Report Variables Requested
5,1,Cumulative Days of Simulation[] ! When Run Period Report Variables Requested
6,1,Calendar Year of Simulation[] ! When Annual Report Variables Requested
7,1,Environment,Site Outdoor Air Drybulb Temperature [C] !TimeStep,ON
8,1,Environment,Site Outdoor Air Relative Humidity [%] !TimeStep,ON
9,1,Environment,Site Diffuse Solar Radiation Rate per Area [W/m2] !TimeStep,ON
10,1,Environment,Site Direct Solar Radiation Rate per Area [W/m2] !TimeStep,ON
11,1,FULL BUILDING - 1 ZONE,Zone Total Internal Total Heating Energy [J] !TimeStep,ON
End of Data Dictionary
1,CHICAGO ANN HTG 99% CONDNS DB,  55.87,  -4.43,   0.00,   8.00
2,1, 1,21, 0, 1, 0.00,30.00,WinterDesignDay
7,-17.3
8,100.0
9,0.0
10,0.0
11,2372400.0
2,1, 1,21, 0, 1,30.00,60.00,WinterDesignDay
7,-17.3
8,100.0
9,0.0
10,0.0
11,2372400.0
2,1, 1,21, 0, 2, 0.00,30.00,WinterDesignDay
7,-17.3
8,100.0
9,0.0
10,0.0
11,2372400.0
2,1, 1,21, 0, 2,30.00,60.00,WinterDesignDay
7,-17.3
8,100.0
9,0.0
10,0.0
11,2372400.0
2,1, 1,21, 0, 3, 0.00,30.00,WinterDesignDay
7,-17.3
8,100.0
9,0.0
10,0.0
11,2372400.0
2,1, 1,21, 0, 3,30.00,60.00,WinterDesignDay
7,-17.3
8,100.0
9,0.0
10,0.0
11,2372400.0
2,1, 1,21, 0, 4, 0.00,30.00,WinterDesignDay
7,-17.3
8,100.0
9,0.0
10,0.0
11,2372400.0
2,1, 1,21, 0, 4,30.00,60.00,WinterDesignDay
7,-17.3
8,100.0
9,0.0
10,0.0
11,2372400.0
2,1, 1,21, 0, 5, 0.00,30.00,WinterDesignDay
7,-17.3
8,100.0
9,0.0
10,0.0
11,2372400.0
2,1, 1,21, 0, 5,30.00,60.00,WinterDesignDay
7,-17.3
8,100.0
9,0.0
10,0.0
11,2372400.0
2,1, 1,21, 0, 6, 0.00,30.00,WinterDesignDay
7,-17.3
8,100.0
9,0.0
10,0.0
11,2372400.0
2,1, 1,21, 0, 6,30.00,60.00,WinterDesignDay
7,-17.3
8,100.0
9,0.0
10,0.0
11,2372400.0
2,1, 1,21, 0, 7, 0.00,30.00,WinterDesignDay
7,-17.3
8,100.0
9,0.0
10,0.0
11,4744800.0
2,1, 1,21, 0, 7,30.00,60.00,WinterDesignDay
7,-17.3
8,100.0
9,0.0
10,0.0
11,4744800.0
2,1, 1,21, 0, 8, 0.00,30.00,WinterDesignDay
7,-17.3
8,100.0
9,0.0
10,0.0
11,4744800.0
2,1, 1,21, 0, 8,30.00,60.00,WinterDesignDay
7,-17.3
8,100.0
9,0.0
10,0.0
11,4744800.0
2,1, 1,21, 0, 9, 0.00,30.00,WinterDesignDay
7,-17.3
8,100.0
9,0.0
10,0.0
11,28824660.000000005
2,1, 1,21, 0, 9,30.00,60.00,WinterDesignDay
7,-17.3
8,100.0
9,0.0
10,0.0
11,28824660.000000005
2,1, 1,21, 0,10, 0.00,30.00,WinterDesignDay
7,-17.3
8,100.0
9,0.0
10,0.0
11,28824660.000000005
2,1, 1,21, 0,10,30.00,60.00,WinterDesignDay
7,-17.3
8,100.0
9,0.0
10,0.0
11,28824660.000000005
2,1, 1,21, 0,11, 0.00,30.00,WinterDesignDay
7,-17.3
8,100.0
9,0.0
10,0.0
11,28824660.000000005
2,1, 1,21, 0,11,30.00,60.00,WinterDesignDay
7,-17.3
8,100.0
9,0.0
10,0.0
11,28824660.0
2,1, 1,21, 0,12, 0.00,30.00,WinterDesignDay
7,-17.3
8,100.0
9,0.0
10,0.0
11,28824659.999999998
2,1, 1,21, 0,12,30.00,60.00,WinterDesignDay
7,-17.3
8,100.0
9,0.0
10,0.0
11,28824660.000000005
2,1, 1,21, 0,13, 0.00,30.00,WinterDesignDay
7,-17.3
8,100.0
9,0.0
10,0.0
11,7117200.000000001
2,1, 1,21, 0,13,30.00,60.00,WinterDesignDay
7,-17.3
8,100.0
9,0.0
10,0.0
11,7117200.000000001
2,1, 1,21, 0,14, 0.00,30.00,WinterDesignDay
7,-17.3
8,100.0
9,0.0
10,0.0
11,7117200.000000001
2,1, 1,21, 0,14,30.00,60.00,WinterDesignDay
7,-17.3
8,100.0
9,0.0
10,0.0
11,7117200.000000001
2,1, 1,21, 0,15, 0.00,30.00,WinterDesignDay
7,-17.3
8,100.0
9,0.0
10,0.0
11,7117200.000000001
2,1, 1,21, 0,15,30.00,60.00,WinterDesignDay
7,-17.3
8,100.0
9,0.0
10,0.0
11,7117200.000000001
2,1, 1,21, 0,16, 0.00,30.00,WinterDesignDay
7,-17.3
8,100.0
9,0.0
10,0.0
11,7117200.000000001
2,1, 1,21, 0,16,30.00,60.00,WinterDesignDay
7,-17.3
8,100.0
9,0.0
10,0.0
11,7117200.000000001
2,1, 1,21, 0,17, 0.00,30.00,WinterDesignDay
7,-17.3
8,100.0
9,0.0
10,0.0
11,7117200.000000001
2,1, 1,21, 0,17,30.00,60.00,WinterDesignDay
7,-17.3
8,100.0
9,0.0
10,0.0
11,7117200.000000001
2,1, 1,21, 0,18, 0.00,30.00,WinterDesignDay
7,-17.3
8,100.0
9,0.0
10,0.0
11,2372400.0
2,1, 1,21, 0,18,30.00,60.00,WinterDesignDay
7,-17.3
8,100.0
9,0.0
10,0.0
11,2372400.0
2,1, 1,21, 0,19, 0.00,30.00,WinterDesignDay
7,-17.3
8,100.0
9,0.0
10,0.0
11,2372400.0
2,1, 1,21, 0,19,30.00,60.00,WinterDesignDay
7,-17.3
8,100.0
9,0.0
10,0.0
11,2372400.0
2,1, 1,21, 0,20, 0.00,30.00,WinterDesignDay
7,-17.3
8,100.0
9,0.0
10,0.0
11,2372400.0
2,1, 1,21, 0,20,30.00,60.00,WinterDesignDay
7,-17.3
8,100.0
9,0.0
10,0.0
11,2372400.0
2,1, 1,21, 0,21, 0.00,30.00,WinterDesignDay
7,-17.3
8,100.0
9,0.0
10,0.0
11,2372400.0
2,1, 1,21, 0,21,30.00,60.00,WinterDesignDay
7,-17.3
8,100.0
9,0.0
10,0.0
11,2372400.0
2,1, 1,21, 0,22, 0.00,30.00,WinterDesignDay
7,-17.3
8,100.0
9,0.0
10,0.0
11,2372400.0
2,1, 1,21, 0,22,30.00,60.00,WinterDesignDay
7,-17.3
8,100.0
9,0.0
10,0.0
11,2372400.0
2,1, 1,21, 0,23, 0.00,30.00,WinterDesignDay
7,-17.3
8,100.0
9,0.0
10,0.0
11,2372400.0
2,1, 1,21, 0,23,30.00,60.00,WinterDesignDay
7,-17.3
8,100.0
9,0.0
10,0.0
11,2372400.0
2,1, 1,21, 0,24, 0.00,30.00,WinterDesignDay
7,-17.3
8,100.0
9,0.0
10,0.0
11,2372400.0
2,1, 1,21, 0,24,30.00,60.00,WinterDesignDay
7,-17.3
8,100.0
9,0.0
10,0.0
11,2372400.0
1,CHICAGO ANN CLG 1% CONDNS DB=>MWB,  55.87,  -4.43,   0.00,   8.00
2,1, 7,21, 0, 1, 0.00,30.00,SummerDesignDay
7,22.405
8,83.78376827287603
9,0.0
10,0.0
11,2372400.0
2,1, 7,21, 0, 1,30.00,60.00,SummerDesignDay
7,22.084000000000004
8,85.43730531155173
9,0.0
10,0.0
11,2372400.0
2,1, 7,21, 0, 2, 0.00,30.00,SummerDesignDay
7,21.87
8,86.56004566297654
9,0.0
10,0.0
11,2372400.0
2,1, 7,21, 0, 2,30.00,60.00,SummerDesignDay
7,21.656
8,87.69944051925187
9,0.0
10,0.0
11,2372400.0
2,1, 7,21, 0, 3, 0.00,30.00,SummerDesignDay
7,21.4955
8,88.56508929623311
9,0.0
10,0.0
11,2372400.0
2,1, 7,21, 0, 3,30.00,60.00,SummerDesignDay
7,21.335
8,89.44033619530046
9,0.0
10,0.0
11,2372400.0
2,1, 7,21, 0, 4, 0.00,30.00,SummerDesignDay
7,21.174500000000003
8,90.3253575707761
9,0.0
10,0.0
11,2372400.0
2,1, 7,21, 0, 4,30.00,60.00,SummerDesignDay
7,21.014000000000004
8,91.22021569306679
9,0.0
10,0.0
11,2372400.0
2,1, 7,21, 0, 5, 0.00,30.00,SummerDesignDay
7,20.907
8,91.82236310329405
9,0.9213283505411527
10,6.749580900988425
11,2372400.0
2,1, 7,21, 0, 5,30.00,60.00,SummerDesignDay
7,20.8
8,92.4289385729077
9,19.75904103652628
10,144.75322063371949
11,2372400.0
2,1, 7,21, 0, 6, 0.00,30.00,SummerDesignDay
7,20.907
8,91.82236310329405
9,43.18355713689645
10,316.359430724931
11,4744800.0
2,1, 7,21, 0, 6,30.00,60.00,SummerDesignDay
7,21.014000000000004
8,91.22021569306679
9,61.42662896127617
10,450.00677706879397
11,4744800.0
2,1, 7,21, 0, 7, 0.00,30.00,SummerDesignDay
7,21.3885
8,89.1474966342658
9,74.85616054722621
10,548.390496454514
11,4744800.0
2,1, 7,21, 0, 7,30.00,60.00,SummerDesignDay
7,21.762999999999999
8,87.12762896313268
9,84.80512189267516
10,621.2758249505625
11,4744800.0
2,1, 7,21, 0, 8, 0.00,30.00,SummerDesignDay
7,22.6725
8,82.43330077583978
9,92.29843992201342
10,676.1712986718986
11,14234400.000000002
2,1, 7,21, 0, 8,30.00,60.00,SummerDesignDay
7,23.582
8,78.02189472033894
9,98.03065424051374
10,718.1650615489415
11,14234400.000000002
2,1, 7,21, 0, 9, 0.00,30.00,SummerDesignDay
7,24.5985
8,73.40338059224061
9,102.46679074602554
10,750.6638576775888
11,88905690.0
2,1, 7,21, 0, 9,30.00,60.00,SummerDesignDay
7,25.615000000000003
8,69.0907379990681
9,105.9221604539138
10,775.9776313962832
11,88905690.0
2,1, 7,21, 0,10, 0.00,30.00,SummerDesignDay
7,26.5245
8,65.4731479201245
9,108.61417159675587
10,795.6990987583831
11,88905690.0
2,1, 7,21, 0,10,30.00,60.00,SummerDesignDay
7,27.434
8,62.06789417538293
9,110.69482409951935
10,810.9417995674896
11,88905690.0
2,1, 7,21, 0,11, 0.00,30.00,SummerDesignDay
7,28.2365
8,59.22863469344782
9,112.27113931341067
10,822.4897640422278
11,88905690.00000002
2,1, 7,21, 0,11,30.00,60.00,SummerDesignDay
7,29.039
8,56.53519770089749
9,113.41813974664407
10,830.8926013293149
11,88905690.0
2,1, 7,21, 0,12, 0.00,30.00,SummerDesignDay
7,29.574
8,54.81651650739757
9,114.18714640630322
10,836.5262851942686
11,88905690.0
2,1, 7,21, 0,12,30.00,60.00,SummerDesignDay
7,30.109
8,53.156663478315959
9,114.61103200031049
10,839.6316385765184
11,88905690.0
2,1, 7,21, 0,13, 0.00,30.00,SummerDesignDay
7,30.537
8,51.86962083293489
9,114.70739116861071
10,840.3375584601434
11,67020300.000000018
2,1, 7,21, 0,13,30.00,60.00,SummerDesignDay
7,30.965
8,50.61773636422065
9,114.48017162444474
10,838.6729654898595
11,67020300.0
2,1, 7,21, 0,14, 0.00,30.00,SummerDesignDay
7,31.2325
8,49.85266685585834
9,113.92003366447801
10,834.5694377146757
11,88905690.0
2,1, 7,21, 0,14,30.00,60.00,SummerDesignDay
7,31.5
8,49.10065456064369
9,113.00349576564995
10,827.8549512958778
11,88905690.0
2,1, 7,21, 0,15, 0.00,30.00,SummerDesignDay
7,31.5
8,49.10065456064369
9,111.6907283562717
10,818.2377178431407
11,88905690.0
2,1, 7,21, 0,15,30.00,60.00,SummerDesignDay
7,31.5
8,49.10065456064369
9,109.92162832976267
10,805.2774266029438
11,88905690.0
2,1, 7,21, 0,16, 0.00,30.00,SummerDesignDay
7,31.179
8,50.004607386205218
9,107.60948447632828
10,788.3388378964181
11,88905690.0
2,1, 7,21, 0,16,30.00,60.00,SummerDesignDay
7,30.858
8,50.927458747015858
9,104.63103975033003
10,766.5189800515577
11,88905690.0
2,1, 7,21, 0,17, 0.00,30.00,SummerDesignDay
7,30.43
8,52.188050137034249
9,100.81092496888907
10,738.5331118719312
11,88905690.0
2,1, 7,21, 0,17,30.00,60.00,SummerDesignDay
7,30.002
8,53.48404187688885
9,95.89705298305234
10,702.5344622200183
11,88905690.0
2,1, 7,21, 0,18, 0.00,30.00,SummerDesignDay
7,29.467
8,55.155483915732109
9,89.52136687086706
10,655.8266742872723
11,23724000.0
2,1, 7,21, 0,18,30.00,60.00,SummerDesignDay
7,28.932000000000003
8,56.886206213678537
9,81.13765805994747
10,594.4082659246136
11,23724000.0
2,1, 7,21, 0,19, 0.00,30.00,SummerDesignDay
7,28.1295
8,59.59857498740659
9,69.9298738986725
10,512.3008979347873
11,14234400.000000002
2,1, 7,21, 0,19,30.00,60.00,SummerDesignDay
7,27.326999999999999
8,62.45795042501064
9,54.72431431374045
10,400.9061335133763
11,14234400.000000002
2,1, 7,21, 0,20, 0.00,30.00,SummerDesignDay
7,26.738500000000003
8,64.6533444115457
9,34.24438722741255
10,250.87175691536667
11,14234400.000000002
2,1, 7,21, 0,20,30.00,60.00,SummerDesignDay
7,26.15
8,66.93621951924843
9,10.180355418560458
10,74.58050374552163
11,14234400.000000002
2,1, 7,21, 0,21, 0.00,30.00,SummerDesignDay
7,25.6685
8,68.87179800102656
9,0.000700713774143051
10,0.005133375418478668
11,9489600.0
2,1, 7,21, 0,21,30.00,60.00,SummerDesignDay
7,25.187
8,70.87078101637225
9,0.0
10,0.0
11,9489600.0
2,1, 7,21, 0,22, 0.00,30.00,SummerDesignDay
7,24.7055
8,72.93540233901304
9,0.0
10,0.0
11,9489600.0
2,1, 7,21, 0,22,30.00,60.00,SummerDesignDay
7,24.224
8,75.06811927916907
9,0.0
10,0.0
11,9489600.0
2,1, 7,21, 0,23, 0.00,30.00,SummerDesignDay
7,23.8495
8,76.7755159833441
9,0.0
10,0.0
11,4744800.0
2,1, 7,21, 0,23,30.00,60.00,SummerDesignDay
7,23.475
8,78.52683735821137
9,0.0
10,0.0
11,4744800.0
2,1, 7,21, 0,24, 0.00,30.00,SummerDesignDay
7,23.100500000000005
8,80.3232990724669
9,0.0
10,0.0
11,2372400.0
2,1, 7,21, 0,24,30.00,60.00,SummerDesignDay
7,22.726
8,82.16618673233526
9,0.0
10,0.0
11,2372400.0
1,GLASGOW-AP - GBR Custom-031400 WMO#=031400,  55.87,  -4.43,   0.00,   8.00
2,1, 1, 1, 0, 1, 0.00,30.00,Sunday
7,2.35
8,79.5
9,0.0
10,0.0
11,2372400.0
2,1, 1, 1, 0, 1,30.00,60.00,Sunday
7,4.0
8,85.0
9,0.0
10,0.0
11,2372400.0
2,1, 1, 1, 0, 2, 0.00,30.00,Sunday
7,3.5
8,85.0
9,0.0
10,0.0
11,2372400.0
2,1, 1, 1, 0, 2,30.00,60.00,Sunday
7,3.0
8,85.0
9,0.0
10,0.0
11,2372400.0
2,1, 1, 1, 0, 3, 0.00,30.00,Sunday
7,3.0
8,82.0
9,0.0
10,0.0
11,2372400.0
2,1, 1, 1, 0, 3,30.00,60.00,Sunday
7,3.0
8,79.0
9,0.0
10,0.0
11,2372400.0
2,1, 1, 1, 0, 4, 0.00,30.00,Sunday
7,2.65
8,78.5
9,0.0
10,0.0
11,2372400.0
2,1, 1, 1, 0, 4,30.00,60.00,Sunday
7,2.3
8,78.0
9,0.0
10,0.0
11,2372400.0
2,1, 1, 1, 0, 5, 0.00,30.00,Sunday
7,2.5
8,76.0
9,0.0
10,0.0
11,2372400.0
2,1, 1, 1, 0, 5,30.00,60.00,Sunday
7,2.7
8,74.0
9,0.0
10,0.0
11,2372400.0
2,1, 1, 1, 0, 6, 0.00,30.00,Sunday
7,2.7
8,74.0
9,0.0
10,0.0
11,2372400.0
2,1, 1, 1, 0, 6,30.00,60.00,Sunday
7,2.7
8,74.0
9,0.0
10,0.0
11,2372400.0
2,1, 1, 1, 0, 7, 0.00,30.00,Sunday
7,2.0
8,76.5
9,0.0
10,0.0
11,2372400.0
2,1, 1, 1, 0, 7,30.00,60.00,Sunday
7,1.3
8,79.0
9,0.0
10,0.0
11,2372400.0
2,1, 1, 1, 0, 8, 0.00,30.00,Sunday
7,1.3
8,79.0
9,0.0
10,0.0
11,2372400.0
2,1, 1, 1, 0, 8,30.00,60.00,Sunday
7,1.3
8,79.0
9,0.0
10,0.0
11,2372400.0
2,1, 1, 1, 0, 9, 0.00,30.00,Sunday
7,1.65
8,76.5
9,0.0
10,0.0
11,2372400.0
2,1, 1, 1, 0, 9,30.00,60.00,Sunday
7,2.0
8,74.0
9,9.5
10,176.5
11,2372400.0
2,1, 1, 1, 0,10, 0.00,30.00,Sunday
7,2.15
8,73.0
9,19.0
10,353.0
11,2372400.0
2,1, 1, 1, 0,10,30.00,60.00,Sunday
7,2.3
8,72.0
9,31.0
10,382.0
11,2372400.0
2,1, 1, 1, 0,11, 0.00,30.00,Sunday
7,3.15
8,71.0
9,43.0
10,411.0
11,2372400.0
2,1, 1, 1, 0,11,30.00,60.00,Sunday
7,4.0
8,70.0
9,49.0
10,445.0
11,2372400.0
2,1, 1, 1, 0,12, 0.00,30.00,Sunday
7,4.65
8,69.5
9,55.0
10,479.0
11,2372400.0
2,1, 1, 1, 0,12,30.00,60.00,Sunday
7,5.3
8,69.0
9,56.5
10,488.0
11,2372400.0
2,1, 1, 1, 0,13, 0.00,30.00,Sunday
7,5.5
8,65.5
9,58.0
10,497.0
11,2372400.0
2,1, 1, 1, 0,13,30.00,60.00,Sunday
7,5.7
8,62.0
9,55.0
10,481.5
11,2372400.0
2,1, 1, 1, 0,14, 0.00,30.00,Sunday
7,5.35
8,63.5
9,52.0
10,466.0
11,2372400.0
2,1, 1, 1, 0,14,30.00,60.00,Sunday
7,5.0
8,65.0
9,44.5
10,424.5
11,2372400.0
2,1, 1, 1, 0,15, 0.00,30.00,Sunday
7,5.0
8,67.5
9,37.0
10,383.0
11,2372400.0
2,1, 1, 1, 0,15,30.00,60.00,Sunday
7,5.0
8,70.0
9,28.5
10,287.0
11,2372400.0
2,1, 1, 1, 0,16, 0.00,30.00,Sunday
7,5.0
8,70.0
9,20.0
10,191.0
11,2372400.0
2,1, 1, 1, 0,16,30.00,60.00,Sunday
7,5.0
8,70.0
9,0.0
10,0.0
11,2372400.0
2,1, 1, 1, 0,17, 0.00,30.00,Sunday
7,4.5
8,72.5
9,0.0
10,0.0
11,2372400.0
2,1, 1, 1, 0,17,30.00,60.00,Sunday
7,4.0
8,75.0
9,0.0
10,0.0
11,2372400.0
2,1, 1, 1, 0,18, 0.00,30.00,Sunday
7,4.0
8,72.5
9,0.0
10,0.0
11,2372400.0
2,1, 1, 1, 0,18,30.00,60.00,Sunday
7,4.0
8,70.0
9,0.0
10,0.0
11,2372400.0
2,1, 1, 1, 0,19, 0.00,30.00,Sunday
7,3.15
8,73.0
9,0.0
10,0.0
11,2372400.0
2,1, 1, 1, 0,19,30.00,60.00,Sunday
7,2.3
8,76.0
9,0.0
10,0.0
11,2372400.0
2,1, 1, 1, 0,20, 0.00,30.00,Sunday
7,2.3
8,74.0
9,0.0
10,0.0
11,2372400.0
2,1, 1, 1, 0,20,30.00,60.00,Sunday
7,2.3
8,72.0
9,0.0
10,0.0
11,2372400.0
2,1, 1, 1, 0,21, 0.00,30.00,Sunday
7,2.5
8,70.5
9,0.0
10,0.0
11,2372400.0
2,1, 1, 1, 0,21,30.00,60.00,Sunday
7,2.7
8,69.0
9,0.0
10,0.0
11,2372400.0
2,1, 1, 1, 0,22, 0.00,30.00,Sunday
7,2.2
8,71.0
9,0.0
10,0.0
11,2372400.0
2,1, 1, 1, 0,22,30.00,60.00,Sunday
7,1.7
8,73.0
9,0.0
10,0.0
11,2372400.0
2,1, 1, 1, 0,23, 0.00,30.00,Sunday
7,1.0
8,75.5
9,0.0
10,0.0
11,2372400.0
2,1, 1, 1, 0,23,30.00,60.00,Sunday
7,0.3
8,78.0
9,0.0
10,0.0
11,2372400.0
2,1, 1, 1, 0,24, 0.00,30.00,Sunday
7,0.5
8,76.0
9,0.0
10,0.0
11,2372400.0
2,1, 1, 1, 0,24,30.00,60.00,Sunday
7,0.7
8,74.0
9,0.0
10,0.0
11,2372400.0
2,2, 1, 2, 0, 1, 0.00,30.00,Monday
7,0.5
8,76.0
9,0.0
10,0.0
11,2372400.0
2,2, 1, 2, 0, 1,30.00,60.00,Monday
7,0.3
8,78.0
9,0.0
10,0.0
11,2372400.0
2,2, 1, 2, 0, 2, 0.00,30.00,Monday
7,0.15
8,79.0
9,0.0
10,0.0
11,2372400.0
2,2, 1, 2, 0, 2,30.00,60.00,Monday
7,0.0
8,80.0
9,0.0
10,0.0
11,2372400.0
2,2, 1, 2, 0, 3, 0.00,30.00,Monday
7,-0.5
8,80.5
9,0.0
10,0.0
11,2372400.0
2,2, 1, 2, 0, 3,30.00,60.00,Monday
7,-1.0
8,81.0
9,0.0
10,0.0
11,2372400.0
2,2, 1, 2, 0, 4, 0.00,30.00,Monday
7,-2.0
8,84.5
9,0.0
10,0.0
11,2372400.0
2,2, 1, 2, 0, 4,30.00,60.00,Monday
7,-3.0
8,88.0
9,0.0
10,0.0
11,2372400.0
2,2, 1, 2, 0, 5, 0.00,30.00,Monday
7,-3.0
8,87.0
9,0.0
10,0.0
11,2372400.0
2,2, 1, 2, 0, 5,30.00,60.00,Monday
7,-3.0
8,86.0
9,0.0
10,0.0
11,2372400.0
2,2, 1, 2, 0, 6, 0.00,30.00,Monday
7,-3.35
8,88.0
9,0.0
10,0.0
11,4744800.0
2,2, 1, 2, 0, 6,30.00,60.00,Monday
7,-3.7
8,90.0
9,0.0
10,0.0
11,4744800.0
2,2, 1, 2, 0, 7, 0.00,30.00,Monday
7,-3.2
8,88.0
9,0.0
10,0.0
11,4744800.0
2,2, 1, 2, 0, 7,30.00,60.00,Monday
7,-2.7
8,86.0
9,0.0
10,0.0
11,4744800.0
2,2, 1, 2, 0, 8, 0.00,30.00,Monday
7,-2.35
8,87.0
9,0.0
10,0.0
11,14234400.000000002
2,2, 1, 2, 0, 8,30.00,60.00,Monday
7,-2.0
8,88.0
9,0.0
10,0.0
11,14234400.000000002
2,2, 1, 2, 0, 9, 0.00,30.00,Monday
7,-2.15
8,89.0
9,0.0
10,0.0
11,88905690.0
2,2, 1, 2, 0, 9,30.00,60.00,Monday
7,-2.3
8,90.0
9,9.5
10,187.5
11,88905690.0
2,2, 1, 2, 0,10, 0.00,30.00,Monday
7,-1.5
8,88.0
9,19.0
10,375.0
11,88905690.0
2,2, 1, 2, 0,10,30.00,60.00,Monday
7,-0.7
8,86.0
9,30.5
10,407.5
11,88905690.0
2,2, 1, 2, 0,11, 0.00,30.00,Monday
7,0.65
8,85.5
9,42.0
10,440.0
11,88905690.0
2,2, 1, 2, 0,11,30.00,60.00,Monday
7,2.0
8,85.0
9,47.5
10,476.5
11,88905690.0
2,2, 1, 2, 0,12, 0.00,30.00,Monday
7,2.65
8,82.0
9,53.0
10,513.0
11,88905690.0
2,2, 1, 2, 0,12,30.00,60.00,Monday
7,3.3
8,79.0
9,54.5
10,522.5
11,88905690.0
2,2, 1, 2, 0,13, 0.00,30.00,Monday
7,4.3
8,76.5
9,56.0
10,532.0
11,67020300.000000018
2,2, 1, 2, 0,13,30.00,60.00,Monday
7,5.3
8,74.0
9,53.5
10,515.5
11,67020300.000000018
2,2, 1, 2, 0,14, 0.00,30.00,Monday
7,5.5
8,75.5
9,51.0
10,499.0
11,88905690.0
2,2, 1, 2, 0,14,30.00,60.00,Monday
7,5.7
8,77.0
9,44.0
10,455.5
11,88905690.0
2,2, 1, 2, 0,15, 0.00,30.00,Monday
7,5.5
8,80.0
9,37.0
10,412.0
11,88905690.00000002
2,2, 1, 2, 0,15,30.00,60.00,Monday
7,5.3
8,83.0
9,29.0
10,309.0
11,88905690.0
2,2, 1, 2, 0,16, 0.00,30.00,Monday
7,5.0
8,83.0
9,21.0
10,206.0
11,88905690.0
2,2, 1, 2, 0,16,30.00,60.00,Monday
7,4.7
8,83.0
9,0.0
10,0.0
11,88905690.0
2,2, 1, 2, 0,17, 0.00,30.00,Monday
7,3.5
8,85.0
9,0.0
10,0.0
11,88905690.0
2,2, 1, 2, 0,17,30.00,60.00,Monday
7,2.3
8,87.0
9,0.0
10,0.0
11,88905690.0
2,2, 1, 2, 0,18, 0.00,30.00,Monday
7,3.0
8,87.0
9,0.0
10,0.0
11,23724000.0
2,2, 1, 2, 0,18,30.00,60.00,Monday
7,3.7
8,87.0
9,0.0
10,0.0
11,23724000.0
2,2, 1, 2, 0,19, 0.00,30.00,Monday
7,3.85
8,84.0
9,0.0
10,0.0
11,14234400.000000002
2,2, 1, 2, 0,19,30.00,60.00,Monday
7,4.0
8,81.0
9,0.0
10,0.0
11,14234400.000000002
2,2, 1, 2, 0,20, 0.00,30.00,Monday
7,3.5
8,84.0
9,0.0
10,0.0
11,14234400.000000002
2,2, 1, 2, 0,20,30.00,60.00,Monday
7,3.0
8,87.0
9,0.0
10,0.0
11,14234400.000000002
2,2, 1, 2, 0,21, 0.00,30.00,Monday
7,3.0
8,87.0
9,0.0
10,0.0
11,9489600.0
2,2, 1, 2, 0,21,30.00,60.00,Monday
7,3.0
8,87.0
9,0.0
10,0.0
11,9489600.0
2,2, 1, 2, 0,22, 0.00,30.00,Monday
7,3.5
8,85.0
9,0.0
10,0.0
11,9489600.0
2,2, 1, 2, 0,22,30.00,60.00,Monday
7,4.0
8,83.0
9,0.0
10,0.0
11,9489600.0
2,2, 1, 2, 0,23, 0.00,30.00,Monday
7,4.5
8,83.0
9,0.0
10,0.0
11,4744800.0
2,2, 1, 2, 0,23,30.00,60.00,Monday
7,5.0
8,83.0
9,0.0
10,0.0
11,4744800.0
2,2, 1, 2, 0,24, 0.00,30.00,Monday
7,5.15
8,84.0
9,0.0
10,0.0
11,2372400.0
2,2, 1, 2, 0,24,30.00,60.00,Monday
7,5.3
8,85.0
9,0.0
10,0.0
11,2372400.0
2,3, 1, 3, 0, 1, 0.00,30.00,Tuesday
7,5.65
8,83.0
9,0.0
10,0.0
11,2372400.0
2,3, 1, 3, 0, 1,30.00,60.00,Tuesday
7,6.0
8,81.0
9,0.0
10,0.0
11,2372400.0
2,3, 1, 3, 0, 2, 0.00,30.00,Tuesday
7,6.0
8,81.0
9,0.0
10,0.0
11,2372400.0
2,3, 1, 3, 0, 2,30.00,60.00,Tuesday
7,6.0
8,81.0
9,0.0
10,0.0
11,2372400.0
2,3, 1, 3, 0, 3, 0.00,30.00,Tuesday
7,5.65
8,84.0
9,0.0
10,0.0
11,2372400.0
2,3, 1, 3, 0, 3,30.00,60.00,Tuesday
7,5.3
8,87.0
9,0.0
10,0.0
11,2372400.0
2,3, 1, 3, 0, 4, 0.00,30.00,Tuesday
7,5.8
8,86.0
9,0.0
10,0.0
11,2372400.0
2,3, 1, 3, 0, 4,30.00,60.00,Tuesday
7,6.3
8,85.0
9,0.0
10,0.0
11,2372400.0
2,3, 1, 3, 0, 5, 0.00,30.00,Tuesday
7,6.65
8,83.0
9,0.0
10,0.0
11,2372400.0
2,3, 1, 3, 0, 5,30.00,60.00,Tuesday
7,7.0
8,81.0
9,0.0
10,0.0
11,2372400.0
2,3, 1, 3, 0, 6, 0.00,30.00,Tuesday
7,7.0
8,84.0
9,0.0
10,0.0
11,4744800.0
2,3, 1, 3, 0, 6,30.00,60.00,Tuesday
7,7.0
8,87.0
9,0.0
10,0.0
11,4744800.0
2,3, 1, 3, 0, 7, 0.00,30.00,Tuesday
7,7.0
8,87.0
9,0.0
10,0.0
11,4744800.0
2,3, 1, 3, 0, 7,30.00,60.00,Tuesday
7,7.0
8,87.0
9,0.0
10,0.0
11,4744800.0
2,3, 1, 3, 0, 8, 0.00,30.00,Tuesday
7,7.0
8,87.0
9,0.0
10,0.0
11,14234400.000000002
2,3, 1, 3, 0, 8,30.00,60.00,Tuesday
7,7.0
8,87.0
9,0.0
10,0.0
11,14234400.000000002
2,3, 1, 3, 0, 9, 0.00,30.00,Tuesday
7,7.35
8,85.0
9,0.0
10,0.0
11,88905690.0
2,3, 1, 3, 0, 9,30.00,60.00,Tuesday
7,7.7
8,83.0
9,10.5
10,103.5
11,88905690.0
2,3, 1, 3, 0,10, 0.00,30.00,Tuesday
7,7.85
8,83.0
9,21.0
10,207.0
11,88905690.0
2,3, 1, 3, 0,10,30.00,60.00,Tuesday
7,8.0
8,83.0
9,35.0
10,224.5
11,88905690.0
2,3, 1, 3, 0,11, 0.00,30.00,Tuesday
7,8.0
8,85.0
9,49.0
10,242.0
11,88905690.0
2,3, 1, 3, 0,11,30.00,60.00,Tuesday
7,8.0
8,87.0
9,58.0
10,263.0
11,88905690.0
2,3, 1, 3, 0,12, 0.00,30.00,Tuesday
7,8.0
8,86.0
9,67.0
10,284.0
11,88905690.0
2,3, 1, 3, 0,12,30.00,60.00,Tuesday
7,8.0
8,85.0
9,69.5
10,290.0
11,88905690.0
2,3, 1, 3, 0,13, 0.00,30.00,Tuesday
7,8.15
8,82.5
9,72.0
10,296.0
11,67020300.000000018
2,3, 1, 3, 0,13,30.00,60.00,Tuesday
7,8.3
8,80.0
9,68.0
10,286.5
11,67020300.000000018
2,3, 1, 3, 0,14, 0.00,30.00,Tuesday
7,8.5
8,81.5
9,64.0
10,277.0
11,88905690.0
2,3, 1, 3, 0,14,30.00,60.00,Tuesday
7,8.7
8,83.0
9,53.5
10,252.0
11,88905690.0
2,3, 1, 3, 0,15, 0.00,30.00,Tuesday
7,8.35
8,85.0
9,43.0
10,227.0
11,88905690.00000002
2,3, 1, 3, 0,15,30.00,60.00,Tuesday
7,8.0
8,87.0
9,31.0
10,170.5
11,88905690.0
2,3, 1, 3, 0,16, 0.00,30.00,Tuesday
7,8.0
8,87.0
9,19.0
10,114.0
11,88905690.00000002
2,3, 1, 3, 0,16,30.00,60.00,Tuesday
7,8.0
8,87.0
9,0.0
10,0.0
11,88905690.0
2,3, 1, 3, 0,17, 0.00,30.00,Tuesday
7,8.0
8,87.0
9,0.0
10,0.0
11,88905690.00000002
2,3, 1, 3, 0,17,30.00,60.00,Tuesday
7,8.0
8,87.0
9,0.0
10,0.0
11,88905690.0
2,3, 1, 3, 0,18, 0.00,30.00,Tuesday
7,8.0
8,87.0
9,0.0
10,0.0
11,23724000.0
2,3, 1, 3, 0,18,30.00,60.00,Tuesday
7,8.0
8,87.0
9,0.0
10,0.0
11,23724000.0
2,3, 1, 3, 0,19, 0.00,30.00,Tuesday
7,8.5
8,85.0
9,0.0
10,0.0
11,14234400.000000002
2,3, 1, 3, 0,19,30.00,60.00,Tuesday
7,9.0
8,83.0
9,0.0
10,0.0
11,14234400.000000002
2,3, 1, 3, 0,20, 0.00,30.00,Tuesday
7,9.0
8,82.5
9,0.0
10,0.0
11,14234400.000000002
2,3, 1, 3, 0,20,30.00,60.00,Tuesday
7,9.0
8,82.0
9,0.0
10,0.0
11,14234400.000000002
2,3, 1, 3, 0,21, 0.00,30.00,Tuesday
7,9.0
8,82.0
9,0.0
10,0.0
11,9489600.0
2,3, 1, 3, 0,21,30.00,60.00,Tuesday
7,9.0
8,82.0
9,0.0
10,0.0
11,9489600.0
2,3, 1, 3, 0,22, 0.00,30.00,Tuesday
7,8.65
8,84.0
9,0.0
10,0.0
11,9489600.0
2,3, 1, 3, 0,22,30.00,60.00,Tuesday
7,8.3
8,86.0
9,0.0
10,0.0
11,9489600.0
2,3, 1, 3, 0,23, 0.00,30.00,Tuesday
7,8.15
8,85.5
9,0.0
10,0.0
11,4744800.0
2,3, 1, 3, 0,23,30.00,60.00,Tuesday
7,8.0
8,85.0
9,0.0
10,0.0
11,4744800.0
2,3, 1, 3, 0,24, 0.00,30.00,Tuesday
7,8.0
8,82.5
9,0.0
10,0.0
11,2372400.0
2,3, 1, 3, 0,24,30.00,60.00,Tuesday
7,8.0
8,80.0
9,0.0
10,0.0
11,2372400.0
2,4, 1, 4, 0, 1, 0.00,30.00,Wednesday
7,8.0
8,78.0
9,0.0
10,0.0
11,2372400.0
2,4, 1, 4, 0, 1,30.00,60.00,Wednesday
7,8.0
8,76.0
9,0.0
10,0.0
11,2372400.0
2,4, 1, 4, 0, 2, 0.00,30.00,Wednesday
7,7.85
8,73.5
9,0.0
10,0.0
11,2372400.0
2,4, 1, 4, 0, 2,30.00,60.00,Wednesday
7,7.7
8,71.0
9,0.0
10,0.0
11,2372400.0
2,4, 1, 4, 0, 3, 0.00,30.00,Wednesday
7,7.2
8,69.0
9,0.0
10,0.0
11,2372400.0
2,4, 1, 4, 0, 3,30.00,60.00,Wednesday
7,6.7
8,67.0
9,0.0
10,0.0
11,2372400.0
2,4, 1, 4, 0, 4, 0.00,30.00,Wednesday
7,5.35
8,74.0
9,0.0
10,0.0
11,2372400.0
2,4, 1, 4, 0, 4,30.00,60.00,Wednesday
7,4.0
8,81.0
9,0.0
10,0.0
11,2372400.0
2,4, 1, 4, 0, 5, 0.00,30.00,Wednesday
7,3.65
8,80.0
9,0.0
10,0.0
11,2372400.0
2,4, 1, 4, 0, 5,30.00,60.00,Wednesday
7,3.3
8,79.0
9,0.0
10,0.0
11,2372400.0
2,4, 1, 4, 0, 6, 0.00,30.00,Wednesday
7,3.5
8,81.0
9,0.0
10,0.0
11,4744800.0
2,4, 1, 4, 0, 6,30.00,60.00,Wednesday
7,3.7
8,83.0
9,0.0
10,0.0
11,4744800.0
2,4, 1, 4, 0, 7, 0.00,30.00,Wednesday
7,2.85
8,85.0
9,0.0
10,0.0
11,4744800.0
2,4, 1, 4, 0, 7,30.00,60.00,Wednesday
7,2.0
8,87.0
9,0.0
10,0.0
11,4744800.0
2,4, 1, 4, 0, 8, 0.00,30.00,Wednesday
7,1.85
8,86.5
9,0.0
10,0.0
11,14234400.000000002
2,4, 1, 4, 0, 8,30.00,60.00,Wednesday
7,1.7
8,86.0
9,0.0
10,0.0
11,14234400.000000002
2,4, 1, 4, 0, 9, 0.00,30.00,Wednesday
7,1.2
8,87.5
9,0.0
10,0.0
11,88905690.0
2,4, 1, 4, 0, 9,30.00,60.00,Wednesday
7,0.7
8,89.0
9,10.0
10,171.0
11,88905690.0
2,4, 1, 4, 0,10, 0.00,30.00,Wednesday
7,1.5
8,87.0
9,20.0
10,342.0
11,88905690.0
2,4, 1, 4, 0,10,30.00,60.00,Wednesday
7,2.3
8,85.0
9,32.0
10,373.5
11,88905690.0
2,4, 1, 4, 0,11, 0.00,30.00,Wednesday
7,2.8
8,85.0
9,44.0
10,405.0
11,88905690.0
2,4, 1, 4, 0,11,30.00,60.00,Wednesday
7,3.3
8,85.0
9,50.5
10,439.0
11,88905690.0
2,4, 1, 4, 0,12, 0.00,30.00,Wednesday
7,4.3
8,77.0
9,57.0
10,473.0
11,88905690.0
2,4, 1, 4, 0,12,30.00,60.00,Wednesday
7,5.3
8,69.0
9,58.5
10,482.0
11,88905690.0
2,4, 1, 4, 0,13, 0.00,30.00,Wednesday
7,5.65
8,65.0
9,60.0
10,491.0
11,67020300.000000018
2,4, 1, 4, 0,13,30.00,60.00,Wednesday
7,6.0
8,61.0
9,57.0
10,476.5
11,67020300.0
2,4, 1, 4, 0,14, 0.00,30.00,Wednesday
7,5.85
8,61.5
9,54.0
10,462.0
11,88905690.0
2,4, 1, 4, 0,14,30.00,60.00,Wednesday
7,5.7
8,62.0
9,46.5
10,422.0
11,88905690.0
2,4, 1, 4, 0,15, 0.00,30.00,Wednesday
7,4.7
8,63.5
9,39.0
10,382.0
11,88905690.0
2,4, 1, 4, 0,15,30.00,60.00,Wednesday
7,3.7
8,65.0
9,30.0
10,286.5
11,88905690.0
2,4, 1, 4, 0,16, 0.00,30.00,Wednesday
7,3.0
8,67.5
9,21.0
10,191.0
11,88905690.0
2,4, 1, 4, 0,16,30.00,60.00,Wednesday
7,2.3
8,70.0
9,0.0
10,0.0
11,88905690.0
2,4, 1, 4, 0,17, 0.00,30.00,Wednesday
7,1.65
8,72.5
9,0.0
10,0.0
11,88905690.0
2,4, 1, 4, 0,17,30.00,60.00,Wednesday
7,1.0
8,75.0
9,0.0
10,0.0
11,88905690.0
2,4, 1, 4, 0,18, 0.00,30.00,Wednesday
7,0.35
8,75.5
9,0.0
10,0.0
11,23724000.0
2,4, 1, 4, 0,18,30.00,60.00,Wednesday
7,-0.3
8,76.0
9,0.0
10,0.0
11,23724000.0
2,4, 1, 4, 0,19, 0.00,30.00,Wednesday
7,-1.5
8,82.0
9,0.0
10,0.0
11,14234400.000000002
2,4, 1, 4, 0,19,30.00,60.00,Wednesday
7,-2.7
8,88.0
9,0.0
10,0.0
11,14234400.000000002
2,4, 1, 4, 0,20, 0.00,30.00,Wednesday
7,-2.5
8,88.0
9,0.0
10,0.0
11,14234400.000000002
2,4, 1, 4, 0,20,30.00,60.00,Wednesday
7,-2.3
8,88.0
9,0.0
10,0.0
11,14234400.000000002
2,4, 1, 4, 0,21, 0.00,30.00,Wednesday
7,-2.8
8,88.0
9,0.0
10,0.0
11,9489600.0
2,4, 1, 4, 0,21,30.00,60.00,Wednesday
7,-3.3
8,88.0
9,0.0
10,0.0
11,9489600.0
2,4, 1, 4, 0,22, 0.00,30.00,Wednesday
7,-3.65
8,90.5
9,0.0
10,0.0
11,9489600.0
2,4, 1, 4, 0,22,30.00,60.00,Wednesday
7,-4.0
8,93.0
9,0.0
10,0.0
11,9489600.0
2,4, 1, 4, 0,23, 0.00,30.00,Wednesday
7,-4.5
8,93.0
9,0.0
10,0.0
11,4744800.0
2,4, 1, 4, 0,23,30.00,60.00,Wednesday
7,-5.0
8,93.0
9,0.0
10,0.0
11,4744800.0
2,4, 1, 4, 0,24, 0.00,30.00,Wednesday
7,-4.5
8,93.0
9,0.0
10,0.0
11,2372400.0
2,4, 1, 4, 0,24,30.00,60.00,Wednesday
7,-4.0
8,93.0
9,0.0
10,0.0
11,2372400.0
2,5, 1, 5, 0, 1, 0.00,30.00,Thursday
7,-4.65
8,93.0
9,0.0
10,0.0
11,2372400.0
2,5, 1, 5, 0, 1,30.00,60.00,Thursday
7,-5.3
8,93.0
9,0.0
10,0.0
11,2372400.0
2,5, 1, 5, 0, 2, 0.00,30.00,Thursday
7,-5.15
8,93.0
9,0.0
10,0.0
11,2372400.0
2,5, 1, 5, 0, 2,30.00,60.00,Thursday
7,-5.0
8,93.0
9,0.0
10,0.0
11,2372400.0
2,5, 1, 5, 0, 3, 0.00,30.00,Thursday
7,-5.0
8,94.0
9,0.0
10,0.0
11,2372400.0
2,5, 1, 5, 0, 3,30.00,60.00,Thursday
7,-5.0
8,95.0
9,0.0
10,0.0
11,2372400.0
2,5, 1, 5, 0, 4, 0.00,30.00,Thursday
7,-5.5
8,96.5
9,0.0
10,0.0
11,2372400.0
2,5, 1, 5, 0, 4,30.00,60.00,Thursday
7,-6.0
8,98.0
9,0.0
10,0.0
11,2372400.0
2,5, 1, 5, 0, 5, 0.00,30.00,Thursday
7,-6.0
8,98.0
9,0.0
10,0.0
11,2372400.0
2,5, 1, 5, 0, 5,30.00,60.00,Thursday
7,-6.0
8,98.0
9,0.0
10,0.0
11,2372400.0
2,5, 1, 5, 0, 6, 0.00,30.00,Thursday
7,-6.15
8,97.5
9,0.0
10,0.0
11,4744800.0
2,5, 1, 5, 0, 6,30.00,60.00,Thursday
7,-6.3
8,97.0
9,0.0
10,0.0
11,4744800.0
2,5, 1, 5, 0, 7, 0.00,30.00,Thursday
7,-6.5
8,97.5
9,0.0
10,0.0
11,4744800.0
2,5, 1, 5, 0, 7,30.00,60.00,Thursday
7,-6.7
8,98.0
9,0.0
10,0.0
11,4744800.0
2,5, 1, 5, 0, 8, 0.00,30.00,Thursday
7,-6.35
8,96.5
9,0.0
10,0.0
11,14234400.000000002
2,5, 1, 5, 0, 8,30.00,60.00,Thursday
7,-6.0
8,95.0
9,0.0
10,0.0
11,14234400.000000002
2,5, 1, 5, 0, 9, 0.00,30.00,Thursday
7,-6.65
8,93.5
9,0.0
10,0.0
11,88905690.0
2,5, 1, 5, 0, 9,30.00,60.00,Thursday
7,-7.3
8,92.0
9,10.0
10,169.5
11,88905690.0
2,5, 1, 5, 0,10, 0.00,30.00,Thursday
7,-6.3
8,94.5
9,20.0
10,339.0
11,88905690.0
2,5, 1, 5, 0,10,30.00,60.00,Thursday
7,-5.3
8,97.0
9,32.0
10,373.0
11,88905690.0
2,5, 1, 5, 0,11, 0.00,30.00,Thursday
7,-4.3
8,97.0
9,44.0
10,407.0
11,88905690.0
2,5, 1, 5, 0,11,30.00,60.00,Thursday
7,-3.3
8,97.0
9,50.5
10,440.5
11,88905690.0
2,5, 1, 5, 0,12, 0.00,30.00,Thursday
7,-2.15
8,91.5
9,57.0
10,474.0
11,88905690.0
2,5, 1, 5, 0,12,30.00,60.00,Thursday
7,-1.0
8,86.0
9,59.0
10,483.0
11,88905690.0
2,5, 1, 5, 0,13, 0.00,30.00,Thursday
7,-0.65
8,83.5
9,61.0
10,492.0
11,67020300.0
2,5, 1, 5, 0,13,30.00,60.00,Thursday
7,-0.3
8,81.0
9,58.0
10,477.5
11,67020300.0
2,5, 1, 5, 0,14, 0.00,30.00,Thursday
7,0.35
8,78.5
9,55.0
10,463.0
11,88905690.0
2,5, 1, 5, 0,14,30.00,60.00,Thursday
7,1.0
8,76.0
9,47.5
10,424.0
11,88905690.0
2,5, 1, 5, 0,15, 0.00,30.00,Thursday
7,1.0
8,78.0
9,40.0
10,385.0
11,88905690.0
2,5, 1, 5, 0,15,30.00,60.00,Thursday
7,1.0
8,80.0
9,31.0
10,288.5
11,88905690.0
2,5, 1, 5, 0,16, 0.00,30.00,Thursday
7,1.15
8,79.5
9,22.0
10,192.0
11,88905690.0
2,5, 1, 5, 0,16,30.00,60.00,Thursday
7,1.3
8,79.0
9,0.0
10,0.0
11,88905690.0
2,5, 1, 5, 0,17, 0.00,30.00,Thursday
7,1.15
8,82.5
9,0.0
10,0.0
11,88905690.0
2,5, 1, 5, 0,17,30.00,60.00,Thursday
7,1.0
8,86.0
9,0.0
10,0.0
11,88905690.0
2,5, 1, 5, 0,18, 0.00,30.00,Thursday
7,1.15
8,85.0
9,0.0
10,0.0
11,23724000.0
2,5, 1, 5, 0,18,30.00,60.00,Thursday
7,1.3
8,84.0
9,0.0
10,0.0
11,23724000.0
2,5, 1, 5, 0,19, 0.00,30.00,Thursday
7,1.65
8,82.0
9,0.0
10,0.0
11,14234400.000000002
2,5, 1, 5, 0,19,30.00,60.00,Thursday
7,2.0
8,80.0
9,0.0
10,0.0
11,14234400.000000002
2,5, 1, 5, 0,20, 0.00,30.00,Thursday
7,2.35
8,81.5
9,0.0
10,0.0
11,14234400.000000002
2,5, 1, 5, 0,20,30.00,60.00,Thursday
7,2.7
8,83.0
9,0.0
10,0.0
11,14234400.000000002
2,5, 1, 5, 0,21, 0.00,30.00,Thursday
7,2.5
8,85.0
9,0.0
10,0.0
11,9489600.0
2,5, 1, 5, 0,21,30.00,60.00,Thursday
7,2.3
8,87.0
9,0.0
10,0.0
11,9489600.0
2,5, 1, 5, 0,22, 0.00,30.00,Thursday
7,2.65
8,87.0
9,0.0
10,0.0
11,9489600.0
2,5, 1, 5, 0,22,30.00,60.00,Thursday
7,3.0
8,87.0
9,0.0
10,0.0
11,9489600.0
2,5, 1, 5, 0,23, 0.00,30.00,Thursday
7,3.0
8,87.0
9,0.0
10,0.0
11,4744800.0
2,5, 1, 5, 0,23,30.00,60.00,Thursday
7,3.0
8,87.0
9,0.0
10,0.0